# INITIAL_STRUCTURE_-7.660652444E+02 eV

CRYSTAL
PRIMVEC
    15.1027673944740002    0.0000000000000000    0.0000000000000000
     0.0000000000000000   15.1027673944740002    0.0000000000000000
     0.0000000000000000    0.0000000000000000   15.1027673944740002
PRIMCOORD
120 1
 C      3.2594742417521925      3.2603152693494666      0.0000315758504843
 C      3.5888386235653957      1.8719636109628059     15.0383084054070775
 C      2.6124754562698951      0.8968353749309901     15.0383547701221794
 C      1.2518099318102889      1.2703326014086647      0.0006954219429883
 C      0.8925647495634083      2.6279731971067899      0.0651548151878976
 C      1.8757729070827316      3.5988715233790685      0.0646926503407515
 C      6.2995737654267039      6.2810510958283254     15.1020719725310091
 C      6.6588189476735868      4.9234105001302009     15.0376125792860993
 C      5.6756107901542787      3.9525121738579365     15.0380747441332456
 C      4.2919094554848058      4.2910684278875317     15.1027358186235148
 C      3.9625450736715973      5.6794200862741890      0.0644589890669213
 C      4.9389082409671134      6.6545483223060140      0.0644126243518197
 C      6.4243698012007568      5.0634599413852159      3.4427351738367591
 C      5.6275048569730961      5.8603248856128749      4.2878787833048300
 C      0.5469859665643186      2.7315882745859197      2.3969694194679407
 C     14.9951646933002927      1.6684970875808032      3.0493542778787011
 C     12.3417053177938296      6.3759997285682033     14.3165196888972286
 C     11.5828926568739963      7.1348123894880349     13.4040165981856685
 C     13.7661289060226721     14.5816055537941143     10.0238210576189903
 C     13.7917264106871205     13.8111857300485781     11.2028262578778630
 C      4.2911038861107285      3.2595096999753879      7.5516247888205603
 C      5.6070356156679244      3.5164541529591231      7.0592189729115198
 C      6.5822159171355468      2.5401430510994305      7.0595729821436963
 C      6.2818320225837798      1.2525908585657310      7.5566934632419445
 C      4.9965763513651584      0.9657306007983556      8.0488612735939213
 C      4.0251590352936617      1.9484197685184632      8.0453324991300139
 C      1.2695516746532327      6.2987928386712593      7.5460739312320539
 C      2.5548073458718545      6.5856530964386391      7.0539061208800753
 C      3.5262246619433339      5.6029639287185464      7.0574348953439854
 C      3.2602798111262752      4.2918739972616109      7.5511426056534390
 C      1.9443480815690821      4.0349295442778681      8.0435484215624804
 C      0.9691677801014494      5.0112406461375771      8.0431944123303030
 C     13.2947305192576426      2.7963884784574446      5.8760576551247343
 C     14.1851160280550630      2.9299572147732182      4.7927164172383554
 C      3.6578313982693262     13.6001283307645853      7.0667969332973151
 C      2.7358975609349505     14.3254137590593285      6.2868903706990436
 C     12.5044166523638669      9.5154995974820622      4.1481013946897427
 C     11.7794151701827339      8.8064342582405590      5.1257794576655451
 C      5.7817161761672935     11.5352614142402530      7.8778485706166652
 C      6.1152850026712020     10.4897208885129576      8.7609295670996108
C1      7.6161663163617526      5.7292770713413734      3.1638120518335313
C1      6.2933219869292474      7.0521214007738777      4.5668019053080640
C1     14.7035969402391622      3.6293295377348089      1.9067264757131601
C1     13.6169398931440710      1.8645334344724027      2.9897250651325349
C1     11.6633297758226426      5.1967616254222362     14.6176734905085972
C1     10.4036545537280265      6.4564368475168505     13.1028627965742945
C1     14.8245801890267010      0.3849197154021873     10.0374807543942399
C1     14.8670736054309192     14.2087432907175337     11.9947011777942514
C1     12.2675986881734449      3.7296381858340704      5.7514194694188676
C1     13.7456928493655095      3.9513704212708287      3.9530070486448956
C1      2.9741122555915580     12.6806051456064957      7.8595735335912931
C1      1.4436459480144710     13.8846231200320567      6.5648811502787598
C1     13.5202997392328044      8.7057481286439575      3.6443419237026906
C1     12.3167531326456405      7.5286564897064823      5.2673470401739753
C1      6.8121504025955826     11.7124295718155285      6.9568131527159780
C1      7.3658949659780655      9.9767686349540696      8.4227813786859400
 H      4.6290728448627778      1.5576619346956058     14.9874532097923936
 H      2.8743597680489579     14.9411517250203705     14.9887836122551832
 H     14.9353243123643207      2.8816921956847121      0.1144778601192247
 H      1.5677683765632238      4.6409675910793968      0.1153813254400382
 H      7.7188267793466814      4.6696915015522951     14.9882895343547737
 H      5.9836153206737910      2.9104161061576157     14.9873860690339598
 H      2.9223108523742254      5.9937217625413872      0.1153141846816045
 H      4.6770239291880387      7.7129993666906422      0.1139837822188158
 H      6.1605724186126150      4.0776908200044231      3.0598787025632292
 H      4.6417357355923050      5.5965275030247339      4.6707352545783616
 H      8.3065631426722852      7.7425182270844095      3.8653069785707985
 H      1.6252938223624922      2.8452993316034196      2.2863761965284666
 H      0.3776378826053204      0.8190313875618537      3.5298316422459926
 H     12.4687742326707376      3.5428932024159216      2.0480738735261390
 H     13.3102364659498065      6.6570350843811612     14.7298905165556206
 H     11.8639280126869568      8.1033435376440082     12.9906457705272764
 H      9.6816731737485497      4.4747802454427594     13.8602681435414468
 H     13.0368587530721065     14.4921501789258613      9.2187920660622407
 H     13.0856479856262276     13.0237182970780658     11.4659938793638574
 H      1.2958631833401946      0.6941295298733342     11.6022930515685623
 H      5.8642292537013034      4.4995803360226851      6.6709235048545512
 H      7.5850008384319345      2.7463612397902564      6.6810815475235241
 H      4.7982448564965621     15.0638776673085921      8.4254582876475812
 H      3.0399840109715650      1.6973362813771842      8.4323565304992307
 H      2.7531388407404358      7.5902734244024082      6.6773091068264199
 H      4.5113996862654249      5.8540474158598297      6.6704108639747659
 H      1.6871544435357051      3.0518033612143185      8.4318438896194454
 H     15.0691502532790569      4.8050224574467375      8.4216858469504814
 H     13.3846350875586850      2.0784563645424927      6.6911647313622318
 H     15.0817233866329463      2.3330404040219661      4.6262998828711996
 H     11.9394072077216542      5.2629477997964127      4.1504401312995896
 H      4.7400654927588306     13.7290917015585148      7.0599623856033400
 H      2.9828456004741972      0.0087293458980089      5.5734486354588633
 H      0.7709295043974788     12.2926892008380264      7.9914440982772570
 H     12.3104429129470088     10.5388238343926659      3.8270241580437845
 H     10.9285790797373963      9.1873345315948818      5.6904933908020690
 H     14.0488334388342810      6.5980695902586417      4.1922709048771098
 H      4.8634085705152890     12.1218356539838155      7.9013155686177390
 H      5.4991958186257186     10.1290195368209623      9.5844813563114215
 H      8.7489797281859119     10.6002429537470348      6.7734666192935924
 N      7.5782431580501406      7.0141982424622649      3.8653069785707985
 N     13.3801011383230968      3.1140526336471148      2.2636638492025192
 N     10.4099931583706926      5.2031002300649032     13.8602681435414468
 N      0.4592586081180744      0.1830079497963022     11.2864647515431020
 N     12.5144036958092446      4.4965774261094920      4.5285346816727827
 N      1.5456541055619768     12.8260313982945320      7.5716252173741054
 N     13.4398575445530923      7.4165332498347913      4.3342765320108327
 N      7.8546440984077641     10.7318948008714212      7.2671583980969787
 O     13.8083267324288297      0.7063895252542730      0.0751199069362635
 O      0.1946531197219335     14.3934939709104910     13.8419279336336754
 O      0.2865206616060917     14.3016264290263315      1.1860665395994889
 O      8.8458238150710482      6.8449936277715882     15.0276474875377346
 O      7.2648630356308983      8.3525246626846634     13.9167008548745166
 O      7.3567305775150569      8.2606571208005040      1.2608394608403308
 O      6.9293503614651364     13.8926829219112378      8.1249478940049276
 O      7.9138887839495347     14.9506521773449546      6.1456362820772110
 O      8.6153264589793945      0.5493224579008147      8.3862162609196211
 O      0.6220338799830054      8.7614676255886383      6.9778195004690682
 O     14.0388246327316146      7.0020612393361770      6.7165511335543870
 O     14.7402623077614745      7.7034989143660377      8.9571311123967945
 S     15.0906593756652114      0.0121080188088184      0.0009091758529767
 S      7.5634917160457960      7.5392756784281767     15.1018582186210217
 S      7.5402966409620102     15.0916803381990388      7.5583255418039261
 S      0.0110870562749971      7.5624707535119660      7.5444418526700723
